+ 0 1 2 tcp 40 ------- 1 1.0 3.1 0 0
- 0 1 2 tcp 40 ------- 1 1.0 3.1 0 0
r 0.02128 1 2 tcp 40 ------- 1 1.0 3.1 0 0
+ 0.02128 2 3 tcp 40 ------- 1 1.0 3.1 0 0
- 0.02128 2 3 tcp 40 ------- 1 1.0 3.1 0 0
r 0.52192 2 3 tcp 40 ------- 1 1.0 3.1 0 0
+ 0.52192 3 2 ack 40 ------- 1 3.1 1.0 0 1
- 0.52192 3 2 ack 40 ------- 1 3.1 1.0 0 1
r 1.02256 3 2 ack 40 ------- 1 3.1 1.0 0 1
+ 1.02256 2 1 ack 40 ------- 1 3.1 1.0 0 1
- 1.02256 2 1 ack 40 ------- 1 3.1 1.0 0 1
r 1.04384 2 1 ack 40 ------- 1 3.1 1.0 0 1
+ 33.6 1 2 tcp 1000 ---A--- 1 1.0 3.1 1 2
- 33.6 1 2 tcp 1000 ---A--- 1 1.0 3.1 1 2
r 33.652 1 2 tcp 1000 ---A--- 1 1.0 3.1 1 2
+ 33.652 2 3 tcp 1000 ---A--- 1 1.0 3.1 1 2
- 33.652 2 3 tcp 1000 ---A--- 1 1.0 3.1 1 2
r 34.168 2 3 tcp 1000 ---A--- 1 1.0 3.1 1 2
+ 34.168 3 2 ack 40 ------- 1 3.1 1.0 1 3
- 34.168 3 2 ack 40 ------- 1 3.1 1.0 1 3
r 34.66864 3 2 ack 40 ------- 1 3.1 1.0 1 3
+ 34.66864 2 1 ack 40 ------- 1 3.1 1.0 1 3
- 34.66864 2 1 ack 40 ------- 1 3.1 1.0 1 3
r 34.68992 2 1 ack 40 ------- 1 3.1 1.0 1 3
+ 54.009159 0 2 exp 210 ------- 0 0.0 3.0 0 4
- 54.009159 0 2 exp 210 ------- 0 0.0 3.0 0 4
r 54.035879 0 2 exp 210 ------- 0 0.0 3.0 0 4
+ 54.035879 2 3 exp 210 ------- 0 0.0 3.0 0 4
- 54.035879 2 3 exp 210 ------- 0 0.0 3.0 0 4
r 54.539239 2 3 exp 210 ------- 0 0.0 3.0 0 4
+ 67.2 1 2 tcp 1000 ---A--- 1 1.0 3.1 2 5
- 67.2 1 2 tcp 1000 ---A--- 1 1.0 3.1 2 5
r 67.252 1 2 tcp 1000 ---A--- 1 1.0 3.1 2 5
+ 67.252 2 3 tcp 1000 ---A--- 1 1.0 3.1 2 5
- 67.252 2 3 tcp 1000 ---A--- 1 1.0 3.1 2 5
r 67.768 2 3 tcp 1000 ---A--- 1 1.0 3.1 2 5
+ 67.768 3 2 ack 40 ------- 1 3.1 1.0 2 6
- 67.768 3 2 ack 40 ------- 1 3.1 1.0 2 6
r 68.26864 3 2 ack 40 ------- 1 3.1 1.0 2 6
+ 68.26864 2 1 ack 40 ------- 1 3.1 1.0 2 6
- 68.26864 2 1 ack 40 ------- 1 3.1 1.0 2 6
r 68.28992 2 1 ack 40 ------- 1 3.1 1.0 2 6
+ 88.189996 0 2 exp 210 ------- 0 0.0 3.0 1 7
- 88.189996 0 2 exp 210 ------- 0 0.0 3.0 1 7
r 88.216716 0 2 exp 210 ------- 0 0.0 3.0 1 7
+ 88.216716 2 3 exp 210 ------- 0 0.0 3.0 1 7
- 88.216716 2 3 exp 210 ------- 0 0.0 3.0 1 7
r 88.720076 2 3 exp 210 ------- 0 0.0 3.0 1 7
+ 100.8 1 2 tcp 1000 ---A--- 1 1.0 3.1 3 8
- 100.8 1 2 tcp 1000 ---A--- 1 1.0 3.1 3 8
r 100.852 1 2 tcp 1000 ---A--- 1 1.0 3.1 3 8
+ 100.852 2 3 tcp 1000 ---A--- 1 1.0 3.1 3 8
- 100.852 2 3 tcp 1000 ---A--- 1 1.0 3.1 3 8
r 101.368 2 3 tcp 1000 ---A--- 1 1.0 3.1 3 8
+ 101.368 3 2 ack 40 ------- 1 3.1 1.0 3 9
- 101.368 3 2 ack 40 ------- 1 3.1 1.0 3 9
r 101.86864 3 2 ack 40 ------- 1 3.1 1.0 3 9
+ 101.86864 2 1 ack 40 ------- 1 3.1 1.0 3 9
- 101.86864 2 1 ack 40 ------- 1 3.1 1.0 3 9
r 101.88992 2 1 ack 40 ------- 1 3.1 1.0 3 9
+ 122.514929 0 2 exp 210 ------- 0 0.0 3.0 2 10
- 122.514929 0 2 exp 210 ------- 0 0.0 3.0 2 10
r 122.541649 0 2 exp 210 ------- 0 0.0 3.0 2 10
+ 122.541649 2 3 exp 210 ------- 0 0.0 3.0 2 10
- 122.541649 2 3 exp 210 ------- 0 0.0 3.0 2 10
r 123.045009 2 3 exp 210 ------- 0 0.0 3.0 2 10
+ 134.4 1 2 tcp 1000 ---A--- 1 1.0 3.1 4 11
- 134.4 1 2 tcp 1000 ---A--- 1 1.0 3.1 4 11
r 134.452 1 2 tcp 1000 ---A--- 1 1.0 3.1 4 11
+ 134.452 2 3 tcp 1000 ---A--- 1 1.0 3.1 4 11
- 134.452 2 3 tcp 1000 ---A--- 1 1.0 3.1 4 11
r 134.968 2 3 tcp 1000 ---A--- 1 1.0 3.1 4 11
+ 134.968 3 2 ack 40 ------- 1 3.1 1.0 4 12
- 134.968 3 2 ack 40 ------- 1 3.1 1.0 4 12
r 135.46864 3 2 ack 40 ------- 1 3.1 1.0 4 12
+ 135.46864 2 1 ack 40 ------- 1 3.1 1.0 4 12
- 135.46864 2 1 ack 40 ------- 1 3.1 1.0 4 12
r 135.48992 2 1 ack 40 ------- 1 3.1 1.0 4 12
+ 156.702008 0 2 exp 210 ------- 0 0.0 3.0 3 13
- 156.702008 0 2 exp 210 ------- 0 0.0 3.0 3 13
r 156.728728 0 2 exp 210 ------- 0 0.0 3.0 3 13
+ 156.728728 2 3 exp 210 ------- 0 0.0 3.0 3 13
- 156.728728 2 3 exp 210 ------- 0 0.0 3.0 3 13
r 157.232088 2 3 exp 210 ------- 0 0.0 3.0 3 13
+ 168 1 2 tcp 1000 ---A--- 1 1.0 3.1 5 14
- 168 1 2 tcp 1000 ---A--- 1 1.0 3.1 5 14
r 168.052 1 2 tcp 1000 ---A--- 1 1.0 3.1 5 14
+ 168.052 2 3 tcp 1000 ---A--- 1 1.0 3.1 5 14
- 168.052 2 3 tcp 1000 ---A--- 1 1.0 3.1 5 14
r 168.568 2 3 tcp 1000 ---A--- 1 1.0 3.1 5 14
+ 168.568 3 2 ack 40 ------- 1 3.1 1.0 5 15
- 168.568 3 2 ack 40 ------- 1 3.1 1.0 5 15
r 169.06864 3 2 ack 40 ------- 1 3.1 1.0 5 15
+ 169.06864 2 1 ack 40 ------- 1 3.1 1.0 5 15
- 169.06864 2 1 ack 40 ------- 1 3.1 1.0 5 15
r 169.08992 2 1 ack 40 ------- 1 3.1 1.0 5 15
