+ 0 1 2 tcp 40 ------- 1 1.0 3.1 0 0
- 0 1 2 tcp 40 ------- 1 1.0 3.1 0 0
r 0.02128 1 2 tcp 40 ------- 1 1.0 3.1 0 0
+ 0.02128 2 3 tcp 40 ------- 1 1.0 3.1 0 0
- 0.02128 2 3 tcp 40 ------- 1 1.0 3.1 0 0
r 0.52192 2 3 tcp 40 ------- 1 1.0 3.1 0 0
+ 0.52192 3 2 ack 40 ------- 1 3.1 1.0 0 1
- 0.52192 3 2 ack 40 ------- 1 3.1 1.0 0 1
r 1.02256 3 2 ack 40 ------- 1 3.1 1.0 0 1
+ 1.02256 2 1 ack 40 ------- 1 3.1 1.0 0 1
- 1.02256 2 1 ack 40 ------- 1 3.1 1.0 0 1
r 1.04384 2 1 ack 40 ------- 1 3.1 1.0 0 1
+ 33.6 1 2 tcp 1000 ---A--- 1 1.0 3.1 1 2
- 33.6 1 2 tcp 1000 ---A--- 1 1.0 3.1 1 2
r 33.652 1 2 tcp 1000 ---A--- 1 1.0 3.1 1 2
+ 33.652 2 3 tcp 1000 ---A--- 1 1.0 3.1 1 2
- 33.652 2 3 tcp 1000 ---A--- 1 1.0 3.1 1 2
r 34.168 2 3 tcp 1000 ---A--- 1 1.0 3.1 1 2
+ 34.168 3 2 ack 40 ------- 1 3.1 1.0 1 3
- 34.168 3 2 ack 40 ------- 1 3.1 1.0 1 3
r 34.66864 3 2 ack 40 ------- 1 3.1 1.0 1 3
+ 34.66864 2 1 ack 40 ------- 1 3.1 1.0 1 3
- 34.66864 2 1 ack 40 ------- 1 3.1 1.0 1 3
r 34.68992 2 1 ack 40 ------- 1 3.1 1.0 1 3
+ 54.009159 0 2 exp 200 ------- 0 0.0 3.0 0 4
- 54.009159 0 2 exp 200 ------- 0 0.0 3.0 0 4
+ 54.009159 0 2 exp 10 ------- 0 0.0 3.0 1 5
- 54.015559 0 2 exp 10 ------- 0 0.0 3.0 1 5
r 54.035559 0 2 exp 200 ------- 0 0.0 3.0 0 4
+ 54.035559 2 3 exp 200 ------- 0 0.0 3.0 0 4
- 54.035559 2 3 exp 200 ------- 0 0.0 3.0 0 4
r 54.035879 0 2 exp 10 ------- 0 0.0 3.0 1 5
+ 54.035879 2 3 exp 10 ------- 0 0.0 3.0 1 5
- 54.038759 2 3 exp 10 ------- 0 0.0 3.0 1 5
r 54.538759 2 3 exp 200 ------- 0 0.0 3.0 0 4
r 54.538919 2 3 exp 10 ------- 0 0.0 3.0 1 5
+ 67.2 1 2 tcp 1000 ---A--- 1 1.0 3.1 2 6
- 67.2 1 2 tcp 1000 ---A--- 1 1.0 3.1 2 6
r 67.252 1 2 tcp 1000 ---A--- 1 1.0 3.1 2 6
+ 67.252 2 3 tcp 1000 ---A--- 1 1.0 3.1 2 6
- 67.252 2 3 tcp 1000 ---A--- 1 1.0 3.1 2 6
r 67.768 2 3 tcp 1000 ---A--- 1 1.0 3.1 2 6
+ 67.768 3 2 ack 40 ------- 1 3.1 1.0 2 7
- 67.768 3 2 ack 40 ------- 1 3.1 1.0 2 7
r 68.26864 3 2 ack 40 ------- 1 3.1 1.0 2 7
+ 68.26864 2 1 ack 40 ------- 1 3.1 1.0 2 7
- 68.26864 2 1 ack 40 ------- 1 3.1 1.0 2 7
r 68.28992 2 1 ack 40 ------- 1 3.1 1.0 2 7
+ 88.189996 0 2 exp 200 ------- 0 0.0 3.0 2 8
- 88.189996 0 2 exp 200 ------- 0 0.0 3.0 2 8
+ 88.189996 0 2 exp 10 ------- 0 0.0 3.0 3 9
- 88.196396 0 2 exp 10 ------- 0 0.0 3.0 3 9
r 88.216396 0 2 exp 200 ------- 0 0.0 3.0 2 8
+ 88.216396 2 3 exp 200 ------- 0 0.0 3.0 2 8
- 88.216396 2 3 exp 200 ------- 0 0.0 3.0 2 8
r 88.216716 0 2 exp 10 ------- 0 0.0 3.0 3 9
+ 88.216716 2 3 exp 10 ------- 0 0.0 3.0 3 9
- 88.219596 2 3 exp 10 ------- 0 0.0 3.0 3 9
r 88.719596 2 3 exp 200 ------- 0 0.0 3.0 2 8
r 88.719756 2 3 exp 10 ------- 0 0.0 3.0 3 9
+ 100.8 1 2 tcp 1000 ---A--- 1 1.0 3.1 3 10
- 100.8 1 2 tcp 1000 ---A--- 1 1.0 3.1 3 10
r 100.852 1 2 tcp 1000 ---A--- 1 1.0 3.1 3 10
+ 100.852 2 3 tcp 1000 ---A--- 1 1.0 3.1 3 10
- 100.852 2 3 tcp 1000 ---A--- 1 1.0 3.1 3 10
r 101.368 2 3 tcp 1000 ---A--- 1 1.0 3.1 3 10
+ 101.368 3 2 ack 40 ------- 1 3.1 1.0 3 11
- 101.368 3 2 ack 40 ------- 1 3.1 1.0 3 11
r 101.86864 3 2 ack 40 ------- 1 3.1 1.0 3 11
+ 101.86864 2 1 ack 40 ------- 1 3.1 1.0 3 11
- 101.86864 2 1 ack 40 ------- 1 3.1 1.0 3 11
r 101.88992 2 1 ack 40 ------- 1 3.1 1.0 3 11
+ 122.514929 0 2 exp 200 ------- 0 0.0 3.0 4 12
- 122.514929 0 2 exp 200 ------- 0 0.0 3.0 4 12
+ 122.514929 0 2 exp 10 ------- 0 0.0 3.0 5 13
- 122.521329 0 2 exp 10 ------- 0 0.0 3.0 5 13
r 122.541329 0 2 exp 200 ------- 0 0.0 3.0 4 12
+ 122.541329 2 3 exp 200 ------- 0 0.0 3.0 4 12
- 122.541329 2 3 exp 200 ------- 0 0.0 3.0 4 12
r 122.541649 0 2 exp 10 ------- 0 0.0 3.0 5 13
+ 122.541649 2 3 exp 10 ------- 0 0.0 3.0 5 13
- 122.544529 2 3 exp 10 ------- 0 0.0 3.0 5 13
r 123.044529 2 3 exp 200 ------- 0 0.0 3.0 4 12
r 123.044689 2 3 exp 10 ------- 0 0.0 3.0 5 13
+ 134.4 1 2 tcp 1000 ---A--- 1 1.0 3.1 4 14
- 134.4 1 2 tcp 1000 ---A--- 1 1.0 3.1 4 14
r 134.452 1 2 tcp 1000 ---A--- 1 1.0 3.1 4 14
+ 134.452 2 3 tcp 1000 ---A--- 1 1.0 3.1 4 14
- 134.452 2 3 tcp 1000 ---A--- 1 1.0 3.1 4 14
r 134.968 2 3 tcp 1000 ---A--- 1 1.0 3.1 4 14
+ 134.968 3 2 ack 40 ------- 1 3.1 1.0 4 15
- 134.968 3 2 ack 40 ------- 1 3.1 1.0 4 15
r 135.46864 3 2 ack 40 ------- 1 3.1 1.0 4 15
+ 135.46864 2 1 ack 40 ------- 1 3.1 1.0 4 15
- 135.46864 2 1 ack 40 ------- 1 3.1 1.0 4 15
r 135.48992 2 1 ack 40 ------- 1 3.1 1.0 4 15
+ 156.702008 0 2 exp 200 ------- 0 0.0 3.0 6 16
- 156.702008 0 2 exp 200 ------- 0 0.0 3.0 6 16
+ 156.702008 0 2 exp 10 ------- 0 0.0 3.0 7 17
- 156.708408 0 2 exp 10 ------- 0 0.0 3.0 7 17
r 156.728408 0 2 exp 200 ------- 0 0.0 3.0 6 16
+ 156.728408 2 3 exp 200 ------- 0 0.0 3.0 6 16
- 156.728408 2 3 exp 200 ------- 0 0.0 3.0 6 16
r 156.728728 0 2 exp 10 ------- 0 0.0 3.0 7 17
+ 156.728728 2 3 exp 10 ------- 0 0.0 3.0 7 17
- 156.731608 2 3 exp 10 ------- 0 0.0 3.0 7 17
r 157.231608 2 3 exp 200 ------- 0 0.0 3.0 6 16
r 157.231768 2 3 exp 10 ------- 0 0.0 3.0 7 17
+ 168 1 2 tcp 1000 ---A--- 1 1.0 3.1 5 18
- 168 1 2 tcp 1000 ---A--- 1 1.0 3.1 5 18
r 168.052 1 2 tcp 1000 ---A--- 1 1.0 3.1 5 18
+ 168.052 2 3 tcp 1000 ---A--- 1 1.0 3.1 5 18
- 168.052 2 3 tcp 1000 ---A--- 1 1.0 3.1 5 18
r 168.568 2 3 tcp 1000 ---A--- 1 1.0 3.1 5 18
+ 168.568 3 2 ack 40 ------- 1 3.1 1.0 5 19
- 168.568 3 2 ack 40 ------- 1 3.1 1.0 5 19
r 169.06864 3 2 ack 40 ------- 1 3.1 1.0 5 19
+ 169.06864 2 1 ack 40 ------- 1 3.1 1.0 5 19
- 169.06864 2 1 ack 40 ------- 1 3.1 1.0 5 19
r 169.08992 2 1 ack 40 ------- 1 3.1 1.0 5 19
